define      = -DPOSRES

integrator  = md
dt          = 0.002
nsteps      = 25000

nstxout-compressed = 500
nstenergy   = 500
nstlog      = 500

continuation = no
constraint_algorithm = lincs
constraints = h-bonds
lincs_iter  = 1
lincs_order = 4

cutoff-scheme = Verlet
nstlist     = 20
rlist       = 1.0
coulombtype = PME
rcoulomb    = 1.0
rvdw        = 1.0

; These groups are created in index.ndx by the scripts
tcoupl      = V-rescale
tc-grps     = Protein_LIG Water_and_ions
tau_t       = 0.1 0.1
ref_t       = 300 300

pcoupl      = no

pbc         = xyz
DispCorr    = EnerPres
gen_vel     = yes
gen_temp    = 300
gen_seed    = -1
